+ 0 /NodeList/1/DeviceList/2/$ns3::CsmaNetDevice/TxQueue/Enqueue ns3::EthernetHeader ( length/type=0xffff, source=00:00:00:00:00:04, destination=33:33:ff:00:00:04) ns3::SixLowPanIphc (Compression kind: 31499) ns3::Icmpv6NS (( type = 135 (NS) code = 0 target = fe80::200:ff:fe00:4 checksum = 6009)) ns3::Icmpv6OptionLinkLayerAddress (( type = 1 length = 1 L2 Address = 00-06-00:00:00:00:00:04)) ns3::EthernetTrailer (fcs=0)
- 0 /NodeList/1/DeviceList/2/$ns3::CsmaNetDevice/TxQueue/Dequeue ns3::EthernetHeader ( length/type=0xffff, source=00:00:00:00:00:04, destination=33:33:ff:00:00:04) ns3::SixLowPanIphc (Compression kind: 31499) ns3::Icmpv6NS (( type = 135 (NS) code = 0 target = fe80::200:ff:fe00:4 checksum = 6009)) ns3::Icmpv6OptionLinkLayerAddress (( type = 1 length = 1 L2 Address = 00-06-00:00:00:00:00:04)) ns3::EthernetTrailer (fcs=0)
+ 0.001 /NodeList/2/DeviceList/1/$ns3::CsmaNetDevice/TxQueue/Enqueue ns3::EthernetHeader ( length/type=0x86dd, source=00:00:00:00:00:02, destination=33:33:ff:00:00:02) ns3::Ipv6Header ((Version 6 Traffic class 0x0 DSCP Default Flow Label 0x0 Payload Length 32 Next Header 58 Hop Limit 255 ):: > ff02::1) ns3::Icmpv6NS (( type = 135 (NS) code = 0 target = fe80::200:ff:fe00:2 checksum = 7033)) ns3::Icmpv6OptionLinkLayerAddress (( type = 1 length = 1 L2 Address = 00-06-00:00:00:00:00:02)) ns3::EthernetTrailer (fcs=0)
- 0.001 /NodeList/2/DeviceList/1/$ns3::CsmaNetDevice/TxQueue/Dequeue ns3::EthernetHeader ( length/type=0x86dd, source=00:00:00:00:00:02, destination=33:33:ff:00:00:02) ns3::Ipv6Header ((Version 6 Traffic class 0x0 DSCP Default Flow Label 0x0 Payload Length 32 Next Header 58 Hop Limit 255 ):: > ff02::1) ns3::Icmpv6NS (( type = 135 (NS) code = 0 target = fe80::200:ff:fe00:2 checksum = 7033)) ns3::Icmpv6OptionLinkLayerAddress (( type = 1 length = 1 L2 Address = 00-06-00:00:00:00:00:02)) ns3::EthernetTrailer (fcs=0)
+ 0.002 /NodeList/1/DeviceList/1/$ns3::CsmaNetDevice/TxQueue/Enqueue ns3::EthernetHeader ( length/type=0x86dd, source=00:00:00:00:00:01, destination=33:33:ff:00:00:01) ns3::Ipv6Header ((Version 6 Traffic class 0x0 DSCP Default Flow Label 0x0 Payload Length 32 Next Header 58 Hop Limit 255 ):: > ff02::1) ns3::Icmpv6NS (( type = 135 (NS) code = 0 target = fe80::200:ff:fe00:1 checksum = 7545)) ns3::Icmpv6OptionLinkLayerAddress (( type = 1 length = 1 L2 Address = 00-06-00:00:00:00:00:01)) ns3::EthernetTrailer (fcs=0)
- 0.002 /NodeList/1/DeviceList/1/$ns3::CsmaNetDevice/TxQueue/Dequeue ns3::EthernetHeader ( length/type=0x86dd, source=00:00:00:00:00:01, destination=33:33:ff:00:00:01) ns3::Ipv6Header ((Version 6 Traffic class 0x0 DSCP Default Flow Label 0x0 Payload Length 32 Next Header 58 Hop Limit 255 ):: > ff02::1) ns3::Icmpv6NS (( type = 135 (NS) code = 0 target = fe80::200:ff:fe00:1 checksum = 7545)) ns3::Icmpv6OptionLinkLayerAddress (( type = 1 length = 1 L2 Address = 00-06-00:00:00:00:00:01)) ns3::EthernetTrailer (fcs=0)
r 0.002112 /NodeList/0/DeviceList/1/$ns3::CsmaNetDevice/MacRx ns3::EthernetHeader ( length/type=0xffff, source=00:00:00:00:00:04, destination=33:33:ff:00:00:04) ns3::SixLowPanIphc (Compression kind: 31499) ns3::Icmpv6NS (( type = 135 (NS) code = 0 target = fe80::200:ff:fe00:4 checksum = 6009)) ns3::Icmpv6OptionLinkLayerAddress (( type = 1 length = 1 L2 Address = 00-06-00:00:00:00:00:04)) ns3::EthernetTrailer (fcs=0)
r 0.003144 /NodeList/1/DeviceList/1/$ns3::CsmaNetDevice/MacRx ns3::EthernetHeader ( length/type=0x86dd, source=00:00:00:00:00:02, destination=33:33:ff:00:00:02) ns3::Ipv6Header ((Version 6 Traffic class 0x0 DSCP Default Flow Label 0x0 Payload Length 32 Next Header 58 Hop Limit 255 ):: > ff02::1) ns3::Icmpv6NS (( type = 135 (NS) code = 0 target = fe80::200:ff:fe00:2 checksum = 7033)) ns3::Icmpv6OptionLinkLayerAddress (( type = 1 length = 1 L2 Address = 00-06-00:00:00:00:00:02)) ns3::EthernetTrailer (fcs=0)
+ 0.004 /NodeList/1/DeviceList/2/$ns3::CsmaNetDevice/TxQueue/Enqueue ns3::EthernetHeader ( length/type=0xffff, source=00:00:00:00:00:04, destination=33:33:ff:00:00:04) ns3::SixLowPanIphc (Compression kind: 31499) ns3::Icmpv6NS (( type = 135 (NS) code = 0 target = 2001:1::200:ff:fe00:4 checksum = 38487)) ns3::Icmpv6OptionLinkLayerAddress (( type = 1 length = 1 L2 Address = 00-06-00:00:00:00:00:04)) ns3::EthernetTrailer (fcs=0)
- 0.004 /NodeList/1/DeviceList/2/$ns3::CsmaNetDevice/TxQueue/Dequeue ns3::EthernetHeader ( length/type=0xffff, source=00:00:00:00:00:04, destination=33:33:ff:00:00:04) ns3::SixLowPanIphc (Compression kind: 31499) ns3::Icmpv6NS (( type = 135 (NS) code = 0 target = 2001:1::200:ff:fe00:4 checksum = 38487)) ns3::Icmpv6OptionLinkLayerAddress (( type = 1 length = 1 L2 Address = 00-06-00:00:00:00:00:04)) ns3::EthernetTrailer (fcs=0)
+ 0.004 /NodeList/2/DeviceList/1/$ns3::CsmaNetDevice/TxQueue/Enqueue ns3::EthernetHeader ( length/type=0x86dd, source=00:00:00:00:00:02, destination=33:33:ff:00:00:02) ns3::Ipv6Header ((Version 6 Traffic class 0x0 DSCP Default Flow Label 0x0 Payload Length 32 Next Header 58 Hop Limit 255 ):: > ff02::1) ns3::Icmpv6NS (( type = 135 (NS) code = 0 target = 2001:2::200:ff:fe00:2 checksum = 39255)) ns3::Icmpv6OptionLinkLayerAddress (( type = 1 length = 1 L2 Address = 00-06-00:00:00:00:00:02)) ns3::EthernetTrailer (fcs=0)
- 0.004 /NodeList/2/DeviceList/1/$ns3::CsmaNetDevice/TxQueue/Dequeue ns3::EthernetHeader ( length/type=0x86dd, source=00:00:00:00:00:02, destination=33:33:ff:00:00:02) ns3::Ipv6Header ((Version 6 Traffic class 0x0 DSCP Default Flow Label 0x0 Payload Length 32 Next Header 58 Hop Limit 255 ):: > ff02::1) ns3::Icmpv6NS (( type = 135 (NS) code = 0 target = 2001:2::200:ff:fe00:2 checksum = 39255)) ns3::Icmpv6OptionLinkLayerAddress (( type = 1 length = 1 L2 Address = 00-06-00:00:00:00:00:02)) ns3::EthernetTrailer (fcs=0)
+ 0.005 /NodeList/0/DeviceList/1/$ns3::CsmaNetDevice/TxQueue/Enqueue ns3::EthernetHeader ( length/type=0xffff, source=00:00:00:00:00:03, destination=33:33:ff:00:00:03) ns3::SixLowPanIphc (Compression kind: 31499) ns3::Icmpv6NS (( type = 135 (NS) code = 0 target = 2001:1::200:ff:fe00:3 checksum = 38999)) ns3::Icmpv6OptionLinkLayerAddress (( type = 1 length = 1 L2 Address = 00-06-00:00:00:00:00:03)) ns3::EthernetTrailer (fcs=0)
- 0.005 /NodeList/0/DeviceList/1/$ns3::CsmaNetDevice/TxQueue/Dequeue ns3::EthernetHeader ( length/type=0xffff, source=00:00:00:00:00:03, destination=33:33:ff:00:00:03) ns3::SixLowPanIphc (Compression kind: 31499) ns3::Icmpv6NS (( type = 135 (NS) code = 0 target = 2001:1::200:ff:fe00:3 checksum = 38999)) ns3::Icmpv6OptionLinkLayerAddress (( type = 1 length = 1 L2 Address = 00-06-00:00:00:00:00:03)) ns3::EthernetTrailer (fcs=0)
r 0.005332 /NodeList/2/DeviceList/1/$ns3::CsmaNetDevice/MacRx ns3::EthernetHeader ( length/type=0x86dd, source=00:00:00:00:00:01, destination=33:33:ff:00:00:01) ns3::Ipv6Header ((Version 6 Traffic class 0x0 DSCP Default Flow Label 0x0 Payload Length 32 Next Header 58 Hop Limit 255 ):: > ff02::1) ns3::Icmpv6NS (( type = 135 (NS) code = 0 target = fe80::200:ff:fe00:1 checksum = 7545)) ns3::Icmpv6OptionLinkLayerAddress (( type = 1 length = 1 L2 Address = 00-06-00:00:00:00:00:01)) ns3::EthernetTrailer (fcs=0)
r 0.006112 /NodeList/0/DeviceList/1/$ns3::CsmaNetDevice/MacRx ns3::EthernetHeader ( length/type=0xffff, source=00:00:00:00:00:04, destination=33:33:ff:00:00:04) ns3::SixLowPanIphc (Compression kind: 31499) ns3::Icmpv6NS (( type = 135 (NS) code = 0 target = 2001:1::200:ff:fe00:4 checksum = 38487)) ns3::Icmpv6OptionLinkLayerAddress (( type = 1 length = 1 L2 Address = 00-06-00:00:00:00:00:04)) ns3::EthernetTrailer (fcs=0)
+ 0.007 /NodeList/0/DeviceList/1/$ns3::CsmaNetDevice/TxQueue/Enqueue ns3::EthernetHeader ( length/type=0xffff, source=00:00:00:00:00:03, destination=33:33:ff:00:00:03) ns3::SixLowPanIphc (Compression kind: 31499) ns3::Icmpv6NS (( type = 135 (NS) code = 0 target = fe80::200:ff:fe00:3 checksum = 6521)) ns3::Icmpv6OptionLinkLayerAddress (( type = 1 length = 1 L2 Address = 00-06-00:00:00:00:00:03)) ns3::EthernetTrailer (fcs=0)
- 0.007 /NodeList/0/DeviceList/1/$ns3::CsmaNetDevice/TxQueue/Dequeue ns3::EthernetHeader ( length/type=0xffff, source=00:00:00:00:00:03, destination=33:33:ff:00:00:03) ns3::SixLowPanIphc (Compression kind: 31499) ns3::Icmpv6NS (( type = 135 (NS) code = 0 target = fe80::200:ff:fe00:3 checksum = 6521)) ns3::Icmpv6OptionLinkLayerAddress (( type = 1 length = 1 L2 Address = 00-06-00:00:00:00:00:03)) ns3::EthernetTrailer (fcs=0)
r 0.008262 /NodeList/1/DeviceList/1/$ns3::CsmaNetDevice/MacRx ns3::EthernetHeader ( length/type=0x86dd, source=00:00:00:00:00:02, destination=33:33:ff:00:00:02) ns3::Ipv6Header ((Version 6 Traffic class 0x0 DSCP Default Flow Label 0x0 Payload Length 32 Next Header 58 Hop Limit 255 ):: > ff02::1) ns3::Icmpv6NS (( type = 135 (NS) code = 0 target = 2001:2::200:ff:fe00:2 checksum = 39255)) ns3::Icmpv6OptionLinkLayerAddress (( type = 1 length = 1 L2 Address = 00-06-00:00:00:00:00:02)) ns3::EthernetTrailer (fcs=0)
r 0.008477 /NodeList/1/DeviceList/2/$ns3::CsmaNetDevice/MacRx ns3::EthernetHeader ( length/type=0xffff, source=00:00:00:00:00:03, destination=33:33:ff:00:00:03) ns3::SixLowPanIphc (Compression kind: 31499) ns3::Icmpv6NS (( type = 135 (NS) code = 0 target = 2001:1::200:ff:fe00:3 checksum = 38999)) ns3::Icmpv6OptionLinkLayerAddress (( type = 1 length = 1 L2 Address = 00-06-00:00:00:00:00:03)) ns3::EthernetTrailer (fcs=0)
+ 0.009 /NodeList/1/DeviceList/1/$ns3::CsmaNetDevice/TxQueue/Enqueue ns3::EthernetHeader ( length/type=0x86dd, source=00:00:00:00:00:01, destination=33:33:ff:00:00:01) ns3::Ipv6Header ((Version 6 Traffic class 0x0 DSCP Default Flow Label 0x0 Payload Length 32 Next Header 58 Hop Limit 255 ):: > ff02::1) ns3::Icmpv6NS (( type = 135 (NS) code = 0 target = 2001:2::200:ff:fe00:1 checksum = 39767)) ns3::Icmpv6OptionLinkLayerAddress (( type = 1 length = 1 L2 Address = 00-06-00:00:00:00:00:01)) ns3::EthernetTrailer (fcs=0)
- 0.009 /NodeList/1/DeviceList/1/$ns3::CsmaNetDevice/TxQueue/Dequeue ns3::EthernetHeader ( length/type=0x86dd, source=00:00:00:00:00:01, destination=33:33:ff:00:00:01) ns3::Ipv6Header ((Version 6 Traffic class 0x0 DSCP Default Flow Label 0x0 Payload Length 32 Next Header 58 Hop Limit 255 ):: > ff02::1) ns3::Icmpv6NS (( type = 135 (NS) code = 0 target = 2001:2::200:ff:fe00:1 checksum = 39767)) ns3::Icmpv6OptionLinkLayerAddress (( type = 1 length = 1 L2 Address = 00-06-00:00:00:00:00:01)) ns3::EthernetTrailer (fcs=0)
r 0.011144 /NodeList/2/DeviceList/1/$ns3::CsmaNetDevice/MacRx ns3::EthernetHeader ( length/type=0x86dd, source=00:00:00:00:00:01, destination=33:33:ff:00:00:01) ns3::Ipv6Header ((Version 6 Traffic class 0x0 DSCP Default Flow Label 0x0 Payload Length 32 Next Header 58 Hop Limit 255 ):: > ff02::1) ns3::Icmpv6NS (( type = 135 (NS) code = 0 target = 2001:2::200:ff:fe00:1 checksum = 39767)) ns3::Icmpv6OptionLinkLayerAddress (( type = 1 length = 1 L2 Address = 00-06-00:00:00:00:00:01)) ns3::EthernetTrailer (fcs=0)
r 0.011287 /NodeList/1/DeviceList/2/$ns3::CsmaNetDevice/MacRx ns3::EthernetHeader ( length/type=0xffff, source=00:00:00:00:00:03, destination=33:33:ff:00:00:03) ns3::SixLowPanIphc (Compression kind: 31499) ns3::Icmpv6NS (( type = 135 (NS) code = 0 target = fe80::200:ff:fe00:3 checksum = 6521)) ns3::Icmpv6OptionLinkLayerAddress (( type = 1 length = 1 L2 Address = 00-06-00:00:00:00:00:03)) ns3::EthernetTrailer (fcs=0)
+ 1.002 /NodeList/0/DeviceList/1/$ns3::CsmaNetDevice/TxQueue/Enqueue ns3::EthernetHeader ( length/type=0xffff, source=00:00:00:00:00:03, destination=33:33:00:00:00:02) ns3::SixLowPanIphc (Compression kind: 31291) ns3::Icmpv6RS (( type = 133 (RS) code = 0 checksum = 10363)) ns3::Icmpv6OptionLinkLayerAddress (( type = 1 length = 1 L2 Address = 00-06-00:00:00:00:00:03)) Payload (size=26) ns3::EthernetTrailer (fcs=0)
- 1.002 /NodeList/0/DeviceList/1/$ns3::CsmaNetDevice/TxQueue/Dequeue ns3::EthernetHeader ( length/type=0xffff, source=00:00:00:00:00:03, destination=33:33:00:00:00:02) ns3::SixLowPanIphc (Compression kind: 31291) ns3::Icmpv6RS (( type = 133 (RS) code = 0 checksum = 10363)) ns3::Icmpv6OptionLinkLayerAddress (( type = 1 length = 1 L2 Address = 00-06-00:00:00:00:00:03)) Payload (size=26) ns3::EthernetTrailer (fcs=0)
r 1.0041 /NodeList/1/DeviceList/2/$ns3::CsmaNetDevice/MacRx ns3::EthernetHeader ( length/type=0xffff, source=00:00:00:00:00:03, destination=33:33:00:00:00:02) ns3::SixLowPanIphc (Compression kind: 31291) ns3::Icmpv6RS (( type = 133 (RS) code = 0 checksum = 10363)) ns3::Icmpv6OptionLinkLayerAddress (( type = 1 length = 1 L2 Address = 00-06-00:00:00:00:00:03)) Payload (size=26) ns3::EthernetTrailer (fcs=0)
+ 1.005 /NodeList/2/DeviceList/1/$ns3::CsmaNetDevice/TxQueue/Enqueue ns3::EthernetHeader ( length/type=0x86dd, source=00:00:00:00:00:02, destination=33:33:00:00:00:02) ns3::Ipv6Header ((Version 6 Traffic class 0x0 DSCP Default Flow Label 0x0 Payload Length 16 Next Header 58 Hop Limit 64 )fe80::200:ff:fe00:2 > ff02::2) ns3::Icmpv6RS (( type = 133 (RS) code = 0 checksum = 10875)) ns3::Icmpv6OptionLinkLayerAddress (( type = 1 length = 1 L2 Address = 00-06-00:00:00:00:00:02)) ns3::EthernetTrailer (fcs=0)
- 1.005 /NodeList/2/DeviceList/1/$ns3::CsmaNetDevice/TxQueue/Dequeue ns3::EthernetHeader ( length/type=0x86dd, source=00:00:00:00:00:02, destination=33:33:00:00:00:02) ns3::Ipv6Header ((Version 6 Traffic class 0x0 DSCP Default Flow Label 0x0 Payload Length 16 Next Header 58 Hop Limit 64 )fe80::200:ff:fe00:2 > ff02::2) ns3::Icmpv6RS (( type = 133 (RS) code = 0 checksum = 10875)) ns3::Icmpv6OptionLinkLayerAddress (( type = 1 length = 1 L2 Address = 00-06-00:00:00:00:00:02)) ns3::EthernetTrailer (fcs=0)
r 1.00712 /NodeList/1/DeviceList/1/$ns3::CsmaNetDevice/MacRx ns3::EthernetHeader ( length/type=0x86dd, source=00:00:00:00:00:02, destination=33:33:00:00:00:02) ns3::Ipv6Header ((Version 6 Traffic class 0x0 DSCP Default Flow Label 0x0 Payload Length 16 Next Header 58 Hop Limit 64 )fe80::200:ff:fe00:2 > ff02::2) ns3::Icmpv6RS (( type = 133 (RS) code = 0 checksum = 10875)) ns3::Icmpv6OptionLinkLayerAddress (( type = 1 length = 1 L2 Address = 00-06-00:00:00:00:00:02)) ns3::EthernetTrailer (fcs=0)
+ 5.007 /NodeList/0/DeviceList/1/$ns3::CsmaNetDevice/TxQueue/Enqueue ns3::EthernetHeader ( length/type=0xffff, source=00:00:00:00:00:03, destination=33:33:ff:00:00:04) ns3::SixLowPanIphc (Compression kind: 31289) ns3::Icmpv6NS (( type = 135 (NS) code = 0 target = fe80::200:ff:fe00:4 checksum = 36730)) ns3::Icmpv6OptionLinkLayerAddress (( type = 1 length = 1 L2 Address = 00-06-00:00:00:00:00:03)) Payload (size=5) ns3::EthernetTrailer (fcs=0)
- 5.007 /NodeList/0/DeviceList/1/$ns3::CsmaNetDevice/TxQueue/Dequeue ns3::EthernetHeader ( length/type=0xffff, source=00:00:00:00:00:03, destination=33:33:ff:00:00:04) ns3::SixLowPanIphc (Compression kind: 31289) ns3::Icmpv6NS (( type = 135 (NS) code = 0 target = fe80::200:ff:fe00:4 checksum = 36730)) ns3::Icmpv6OptionLinkLayerAddress (( type = 1 length = 1 L2 Address = 00-06-00:00:00:00:00:03)) Payload (size=5) ns3::EthernetTrailer (fcs=0)
r 5.0091 /NodeList/1/DeviceList/2/$ns3::CsmaNetDevice/MacRx ns3::EthernetHeader ( length/type=0xffff, source=00:00:00:00:00:03, destination=33:33:ff:00:00:04) ns3::SixLowPanIphc (Compression kind: 31289) ns3::Icmpv6NS (( type = 135 (NS) code = 0 target = fe80::200:ff:fe00:4 checksum = 36730)) ns3::Icmpv6OptionLinkLayerAddress (( type = 1 length = 1 L2 Address = 00-06-00:00:00:00:00:03)) Payload (size=5) ns3::EthernetTrailer (fcs=0)
+ 5.0091 /NodeList/1/DeviceList/2/$ns3::CsmaNetDevice/TxQueue/Enqueue ns3::EthernetHeader ( length/type=0xffff, source=00:00:00:00:00:04, destination=00:00:00:00:00:03) ns3::SixLowPanIphc (Compression kind: 31539) ns3::Icmpv6NA (( type = 136 (NA) code = 0 checksum = 4503)) ns3::Icmpv6OptionLinkLayerAddress (( type = 2 length = 1 L2 Address = 00-06-00:00:00:00:00:04)) Payload (size=11) ns3::EthernetTrailer (fcs=0)
- 5.0091 /NodeList/1/DeviceList/2/$ns3::CsmaNetDevice/TxQueue/Dequeue ns3::EthernetHeader ( length/type=0xffff, source=00:00:00:00:00:04, destination=00:00:00:00:00:03) ns3::SixLowPanIphc (Compression kind: 31539) ns3::Icmpv6NA (( type = 136 (NA) code = 0 checksum = 4503)) ns3::Icmpv6OptionLinkLayerAddress (( type = 2 length = 1 L2 Address = 00-06-00:00:00:00:00:04)) Payload (size=11) ns3::EthernetTrailer (fcs=0)
r 5.01121 /NodeList/0/DeviceList/1/$ns3::CsmaNetDevice/MacRx ns3::EthernetHeader ( length/type=0xffff, source=00:00:00:00:00:04, destination=00:00:00:00:00:03) ns3::SixLowPanIphc (Compression kind: 31539) ns3::Icmpv6NA (( type = 136 (NA) code = 0 checksum = 4503)) ns3::Icmpv6OptionLinkLayerAddress (( type = 2 length = 1 L2 Address = 00-06-00:00:00:00:00:04)) Payload (size=11) ns3::EthernetTrailer (fcs=0)
+ 5.01121 /NodeList/0/DeviceList/1/$ns3::CsmaNetDevice/TxQueue/Enqueue ns3::EthernetHeader ( length/type=0xffff, source=00:00:00:00:00:03, destination=00:00:00:00:00:04) ns3::SixLowPanFrag1 (datagram size 248 tag 21591) ns3::SixLowPanIphc (Compression kind: 31232) ns3::Icmpv6Echo (( type = 128 (Request) code = 0 checksum = 24032)) Payload Fragment [0:96] ns3::EthernetTrailer (fcs=0)
- 5.01121 /NodeList/0/DeviceList/1/$ns3::CsmaNetDevice/TxQueue/Dequeue ns3::EthernetHeader ( length/type=0xffff, source=00:00:00:00:00:03, destination=00:00:00:00:00:04) ns3::SixLowPanFrag1 (datagram size 248 tag 21591) ns3::SixLowPanIphc (Compression kind: 31232) ns3::Icmpv6Echo (( type = 128 (Request) code = 0 checksum = 24032)) Payload Fragment [0:96] ns3::EthernetTrailer (fcs=0)
+ 5.01121 /NodeList/0/DeviceList/1/$ns3::CsmaNetDevice/TxQueue/Enqueue ns3::EthernetHeader ( length/type=0xffff, source=00:00:00:00:00:03, destination=00:00:00:00:00:04) ns3::SixLowPanFragN (datagram size 248 tag 21591 offset 18) Payload Fragment [96:200] ns3::EthernetTrailer (fcs=0)
- 5.01148 /NodeList/0/DeviceList/1/$ns3::CsmaNetDevice/TxQueue/Dequeue ns3::EthernetHeader ( length/type=0xffff, source=00:00:00:00:00:03, destination=00:00:00:00:00:04) ns3::SixLowPanFragN (datagram size 248 tag 21591 offset 18) Payload Fragment [96:200] ns3::EthernetTrailer (fcs=0)
r 5.01346 /NodeList/1/DeviceList/2/$ns3::CsmaNetDevice/MacRx ns3::EthernetHeader ( length/type=0xffff, source=00:00:00:00:00:03, destination=00:00:00:00:00:04) ns3::SixLowPanFrag1 (datagram size 248 tag 21591) ns3::SixLowPanIphc (Compression kind: 31232) ns3::Icmpv6Echo (( type = 128 (Request) code = 0 checksum = 24032)) Payload Fragment [0:96] ns3::EthernetTrailer (fcs=0)
r 5.01609 /NodeList/1/DeviceList/2/$ns3::CsmaNetDevice/MacRx ns3::EthernetHeader ( length/type=0xffff, source=00:00:00:00:00:03, destination=00:00:00:00:00:04) ns3::SixLowPanFragN (datagram size 248 tag 21591 offset 18) Payload Fragment [96:200] ns3::EthernetTrailer (fcs=0)
+ 5.01609 /NodeList/1/DeviceList/1/$ns3::CsmaNetDevice/TxQueue/Enqueue ns3::EthernetHeader ( length/type=0x86dd, source=00:00:00:00:00:01, destination=33:33:ff:00:00:02) ns3::Ipv6Header ((Version 6 Traffic class 0x0 DSCP Default Flow Label 0x0 Payload Length 32 Next Header 58 Hop Limit 64 )2001:2::200:ff:fe00:1 > ff02::1:ff00:2) ns3::Icmpv6NS (( type = 135 (NS) code = 0 target = 2001:2::200:ff:fe00:2 checksum = 37687)) ns3::Icmpv6OptionLinkLayerAddress (( type = 1 length = 1 L2 Address = 00-06-00:00:00:00:00:01)) ns3::EthernetTrailer (fcs=0)
- 5.01609 /NodeList/1/DeviceList/1/$ns3::CsmaNetDevice/TxQueue/Dequeue ns3::EthernetHeader ( length/type=0x86dd, source=00:00:00:00:00:01, destination=33:33:ff:00:00:02) ns3::Ipv6Header ((Version 6 Traffic class 0x0 DSCP Default Flow Label 0x0 Payload Length 32 Next Header 58 Hop Limit 64 )2001:2::200:ff:fe00:1 > ff02::1:ff00:2) ns3::Icmpv6NS (( type = 135 (NS) code = 0 target = 2001:2::200:ff:fe00:2 checksum = 37687)) ns3::Icmpv6OptionLinkLayerAddress (( type = 1 length = 1 L2 Address = 00-06-00:00:00:00:00:01)) ns3::EthernetTrailer (fcs=0)
r 5.01823 /NodeList/2/DeviceList/1/$ns3::CsmaNetDevice/MacRx ns3::EthernetHeader ( length/type=0x86dd, source=00:00:00:00:00:01, destination=33:33:ff:00:00:02) ns3::Ipv6Header ((Version 6 Traffic class 0x0 DSCP Default Flow Label 0x0 Payload Length 32 Next Header 58 Hop Limit 64 )2001:2::200:ff:fe00:1 > ff02::1:ff00:2) ns3::Icmpv6NS (( type = 135 (NS) code = 0 target = 2001:2::200:ff:fe00:2 checksum = 37687)) ns3::Icmpv6OptionLinkLayerAddress (( type = 1 length = 1 L2 Address = 00-06-00:00:00:00:00:01)) ns3::EthernetTrailer (fcs=0)
+ 5.01823 /NodeList/2/DeviceList/1/$ns3::CsmaNetDevice/TxQueue/Enqueue ns3::EthernetHeader ( length/type=0x86dd, source=00:00:00:00:00:02, destination=00:00:00:00:00:01) ns3::Ipv6Header ((Version 6 Traffic class 0x0 DSCP Default Flow Label 0x0 Payload Length 32 Next Header 58 Hop Limit 255 )2001:2::200:ff:fe00:2 > 2001:2::200:ff:fe00:1) ns3::Icmpv6NA (( type = 136 (NA) code = 0 checksum = 37810)) ns3::Icmpv6OptionLinkLayerAddress (( type = 2 length = 1 L2 Address = 00-06-00:00:00:00:00:02)) ns3::EthernetTrailer (fcs=0)
- 5.01823 /NodeList/2/DeviceList/1/$ns3::CsmaNetDevice/TxQueue/Dequeue ns3::EthernetHeader ( length/type=0x86dd, source=00:00:00:00:00:02, destination=00:00:00:00:00:01) ns3::Ipv6Header ((Version 6 Traffic class 0x0 DSCP Default Flow Label 0x0 Payload Length 32 Next Header 58 Hop Limit 255 )2001:2::200:ff:fe00:2 > 2001:2::200:ff:fe00:1) ns3::Icmpv6NA (( type = 136 (NA) code = 0 checksum = 37810)) ns3::Icmpv6OptionLinkLayerAddress (( type = 2 length = 1 L2 Address = 00-06-00:00:00:00:00:02)) ns3::EthernetTrailer (fcs=0)
r 5.02038 /NodeList/1/DeviceList/1/$ns3::CsmaNetDevice/MacRx ns3::EthernetHeader ( length/type=0x86dd, source=00:00:00:00:00:02, destination=00:00:00:00:00:01) ns3::Ipv6Header ((Version 6 Traffic class 0x0 DSCP Default Flow Label 0x0 Payload Length 32 Next Header 58 Hop Limit 255 )2001:2::200:ff:fe00:2 > 2001:2::200:ff:fe00:1) ns3::Icmpv6NA (( type = 136 (NA) code = 0 checksum = 37810)) ns3::Icmpv6OptionLinkLayerAddress (( type = 2 length = 1 L2 Address = 00-06-00:00:00:00:00:02)) ns3::EthernetTrailer (fcs=0)
+ 5.02038 /NodeList/1/DeviceList/1/$ns3::CsmaNetDevice/TxQueue/Enqueue ns3::EthernetHeader ( length/type=0x86dd, source=00:00:00:00:00:01, destination=00:00:00:00:00:02) ns3::Ipv6Header ((Version 6 Traffic class 0x0 DSCP Default Flow Label 0x0 Payload Length 208 Next Header 58 Hop Limit 63 )2001:1::200:ff:fe00:3 > 2001:2::200:ff:fe00:2) ns3::Icmpv6Echo (( type = 128 (Request) code = 0 checksum = 24032)) Payload (size=200) ns3::EthernetTrailer (fcs=0)
- 5.02038 /NodeList/1/DeviceList/1/$ns3::CsmaNetDevice/TxQueue/Dequeue ns3::EthernetHeader ( length/type=0x86dd, source=00:00:00:00:00:01, destination=00:00:00:00:00:02) ns3::Ipv6Header ((Version 6 Traffic class 0x0 DSCP Default Flow Label 0x0 Payload Length 208 Next Header 58 Hop Limit 63 )2001:1::200:ff:fe00:3 > 2001:2::200:ff:fe00:2) ns3::Icmpv6Echo (( type = 128 (Request) code = 0 checksum = 24032)) Payload (size=200) ns3::EthernetTrailer (fcs=0)
r 5.02281 /NodeList/2/DeviceList/1/$ns3::CsmaNetDevice/MacRx ns3::EthernetHeader ( length/type=0x86dd, source=00:00:00:00:00:01, destination=00:00:00:00:00:02) ns3::Ipv6Header ((Version 6 Traffic class 0x0 DSCP Default Flow Label 0x0 Payload Length 208 Next Header 58 Hop Limit 63 )2001:1::200:ff:fe00:3 > 2001:2::200:ff:fe00:2) ns3::Icmpv6Echo (( type = 128 (Request) code = 0 checksum = 24032)) Payload (size=200) ns3::EthernetTrailer (fcs=0)
+ 5.02781 /NodeList/2/DeviceList/1/$ns3::CsmaNetDevice/TxQueue/Enqueue ns3::EthernetHeader ( length/type=0x86dd, source=00:00:00:00:00:02, destination=33:33:ff:00:00:01) ns3::Ipv6Header ((Version 6 Traffic class 0x0 DSCP Default Flow Label 0x0 Payload Length 32 Next Header 58 Hop Limit 64 )fe80::200:ff:fe00:2 > ff02::1:ff00:1) ns3::Icmpv6NS (( type = 135 (NS) code = 0 target = fe80::200:ff:fe00:1 checksum = 38778)) ns3::Icmpv6OptionLinkLayerAddress (( type = 1 length = 1 L2 Address = 00-06-00:00:00:00:00:02)) ns3::EthernetTrailer (fcs=0)
- 5.02781 /NodeList/2/DeviceList/1/$ns3::CsmaNetDevice/TxQueue/Dequeue ns3::EthernetHeader ( length/type=0x86dd, source=00:00:00:00:00:02, destination=33:33:ff:00:00:01) ns3::Ipv6Header ((Version 6 Traffic class 0x0 DSCP Default Flow Label 0x0 Payload Length 32 Next Header 58 Hop Limit 64 )fe80::200:ff:fe00:2 > ff02::1:ff00:1) ns3::Icmpv6NS (( type = 135 (NS) code = 0 target = fe80::200:ff:fe00:1 checksum = 38778)) ns3::Icmpv6OptionLinkLayerAddress (( type = 1 length = 1 L2 Address = 00-06-00:00:00:00:00:02)) ns3::EthernetTrailer (fcs=0)
r 5.02995 /NodeList/1/DeviceList/1/$ns3::CsmaNetDevice/MacRx ns3::EthernetHeader ( length/type=0x86dd, source=00:00:00:00:00:02, destination=33:33:ff:00:00:01) ns3::Ipv6Header ((Version 6 Traffic class 0x0 DSCP Default Flow Label 0x0 Payload Length 32 Next Header 58 Hop Limit 64 )fe80::200:ff:fe00:2 > ff02::1:ff00:1) ns3::Icmpv6NS (( type = 135 (NS) code = 0 target = fe80::200:ff:fe00:1 checksum = 38778)) ns3::Icmpv6OptionLinkLayerAddress (( type = 1 length = 1 L2 Address = 00-06-00:00:00:00:00:02)) ns3::EthernetTrailer (fcs=0)
+ 5.02995 /NodeList/1/DeviceList/1/$ns3::CsmaNetDevice/TxQueue/Enqueue ns3::EthernetHeader ( length/type=0x86dd, source=00:00:00:00:00:01, destination=00:00:00:00:00:02) ns3::Ipv6Header ((Version 6 Traffic class 0x0 DSCP Default Flow Label 0x0 Payload Length 32 Next Header 58 Hop Limit 255 )fe80::200:ff:fe00:1 > fe80::200:ff:fe00:2) ns3::Icmpv6NA (( type = 136 (NA) code = 0 checksum = 7063)) ns3::Icmpv6OptionLinkLayerAddress (( type = 2 length = 1 L2 Address = 00-06-00:00:00:00:00:01)) ns3::EthernetTrailer (fcs=0)
- 5.02995 /NodeList/1/DeviceList/1/$ns3::CsmaNetDevice/TxQueue/Dequeue ns3::EthernetHeader ( length/type=0x86dd, source=00:00:00:00:00:01, destination=00:00:00:00:00:02) ns3::Ipv6Header ((Version 6 Traffic class 0x0 DSCP Default Flow Label 0x0 Payload Length 32 Next Header 58 Hop Limit 255 )fe80::200:ff:fe00:1 > fe80::200:ff:fe00:2) ns3::Icmpv6NA (( type = 136 (NA) code = 0 checksum = 7063)) ns3::Icmpv6OptionLinkLayerAddress (( type = 2 length = 1 L2 Address = 00-06-00:00:00:00:00:01)) ns3::EthernetTrailer (fcs=0)
r 5.0321 /NodeList/2/DeviceList/1/$ns3::CsmaNetDevice/MacRx ns3::EthernetHeader ( length/type=0x86dd, source=00:00:00:00:00:01, destination=00:00:00:00:00:02) ns3::Ipv6Header ((Version 6 Traffic class 0x0 DSCP Default Flow Label 0x0 Payload Length 32 Next Header 58 Hop Limit 255 )fe80::200:ff:fe00:1 > fe80::200:ff:fe00:2) ns3::Icmpv6NA (( type = 136 (NA) code = 0 checksum = 7063)) ns3::Icmpv6OptionLinkLayerAddress (( type = 2 length = 1 L2 Address = 00-06-00:00:00:00:00:01)) ns3::EthernetTrailer (fcs=0)
+ 5.0321 /NodeList/2/DeviceList/1/$ns3::CsmaNetDevice/TxQueue/Enqueue ns3::EthernetHeader ( length/type=0x86dd, source=00:00:00:00:00:02, destination=00:00:00:00:00:01) ns3::Ipv6Header ((Version 6 Traffic class 0x0 DSCP Default Flow Label 0x0 Payload Length 208 Next Header 58 Hop Limit 64 )2001:2::200:ff:fe00:2 > 2001:1::200:ff:fe00:3) ns3::Icmpv6Echo (( type = 129 (Reply) code = 0 checksum = 24031)) Payload (size=200) ns3::EthernetTrailer (fcs=0)
- 5.0321 /NodeList/2/DeviceList/1/$ns3::CsmaNetDevice/TxQueue/Dequeue ns3::EthernetHeader ( length/type=0x86dd, source=00:00:00:00:00:02, destination=00:00:00:00:00:01) ns3::Ipv6Header ((Version 6 Traffic class 0x0 DSCP Default Flow Label 0x0 Payload Length 208 Next Header 58 Hop Limit 64 )2001:2::200:ff:fe00:2 > 2001:1::200:ff:fe00:3) ns3::Icmpv6Echo (( type = 129 (Reply) code = 0 checksum = 24031)) Payload (size=200) ns3::EthernetTrailer (fcs=0)
r 5.03452 /NodeList/1/DeviceList/1/$ns3::CsmaNetDevice/MacRx ns3::EthernetHeader ( length/type=0x86dd, source=00:00:00:00:00:02, destination=00:00:00:00:00:01) ns3::Ipv6Header ((Version 6 Traffic class 0x0 DSCP Default Flow Label 0x0 Payload Length 208 Next Header 58 Hop Limit 64 )2001:2::200:ff:fe00:2 > 2001:1::200:ff:fe00:3) ns3::Icmpv6Echo (( type = 129 (Reply) code = 0 checksum = 24031)) Payload (size=200) ns3::EthernetTrailer (fcs=0)
+ 5.04152 /NodeList/1/DeviceList/2/$ns3::CsmaNetDevice/TxQueue/Enqueue ns3::EthernetHeader ( length/type=0xffff, source=00:00:00:00:00:04, destination=33:33:ff:00:00:03) ns3::SixLowPanIphc (Compression kind: 31241) ns3::Icmpv6NS (( type = 135 (NS) code = 0 target = 2001:1::200:ff:fe00:3 checksum = 36151)) ns3::Icmpv6OptionLinkLayerAddress (( type = 1 length = 1 L2 Address = 00-06-00:00:00:00:00:04)) ns3::EthernetTrailer (fcs=0)
- 5.04152 /NodeList/1/DeviceList/2/$ns3::CsmaNetDevice/TxQueue/Dequeue ns3::EthernetHeader ( length/type=0xffff, source=00:00:00:00:00:04, destination=33:33:ff:00:00:03) ns3::SixLowPanIphc (Compression kind: 31241) ns3::Icmpv6NS (( type = 135 (NS) code = 0 target = 2001:1::200:ff:fe00:3 checksum = 36151)) ns3::Icmpv6OptionLinkLayerAddress (( type = 1 length = 1 L2 Address = 00-06-00:00:00:00:00:04)) ns3::EthernetTrailer (fcs=0)
r 5.04364 /NodeList/0/DeviceList/1/$ns3::CsmaNetDevice/MacRx ns3::EthernetHeader ( length/type=0xffff, source=00:00:00:00:00:04, destination=33:33:ff:00:00:03) ns3::SixLowPanIphc (Compression kind: 31241) ns3::Icmpv6NS (( type = 135 (NS) code = 0 target = 2001:1::200:ff:fe00:3 checksum = 36151)) ns3::Icmpv6OptionLinkLayerAddress (( type = 1 length = 1 L2 Address = 00-06-00:00:00:00:00:04)) ns3::EthernetTrailer (fcs=0)
+ 5.04364 /NodeList/0/DeviceList/1/$ns3::CsmaNetDevice/TxQueue/Enqueue ns3::EthernetHeader ( length/type=0xffff, source=00:00:00:00:00:03, destination=00:00:00:00:00:04) ns3::SixLowPanIphc (Compression kind: 31488) ns3::Icmpv6NA (( type = 136 (NA) code = 0 checksum = 37042)) ns3::Icmpv6OptionLinkLayerAddress (( type = 2 length = 1 L2 Address = 00-06-00:00:00:00:00:03)) ns3::EthernetTrailer (fcs=0)
- 5.04364 /NodeList/0/DeviceList/1/$ns3::CsmaNetDevice/TxQueue/Dequeue ns3::EthernetHeader ( length/type=0xffff, source=00:00:00:00:00:03, destination=00:00:00:00:00:04) ns3::SixLowPanIphc (Compression kind: 31488) ns3::Icmpv6NA (( type = 136 (NA) code = 0 checksum = 37042)) ns3::Icmpv6OptionLinkLayerAddress (( type = 2 length = 1 L2 Address = 00-06-00:00:00:00:00:03)) ns3::EthernetTrailer (fcs=0)